LAMMPS (2 Aug 2023 - Update 2)
  using 32 OpenMP thread(s) per MPI task
Loaded 1 plugins from E:\Program Files\LAMMPS\LAMMPS 64-bit 2Aug2023\plugins
# LAMMPS Input file generated using LIon, a Matlab wrapper for ion trap simulations
# Lion Version: 876eebf69844a8b84affbd30305f46e2e1a6861f
###################################################################################

# No GPU acceleration will be enabled. (sim.GPUAccel = false)

units si
atom_style charge

#Creating simulation box...
boundary m m m
region simulationDomain block -1.000000e-03 1.000000e-03 -1.000000e-03 1.000000e-03 -1.000000e-03 1.000000e-03 units box
create_box 1 simulationDomain
Created orthogonal box = (-0.001 -0.001 -0.001) to (0.001 0.001 0.001)
  1 by 1 by 1 MPI processor grid

# Configure Neighbor list:
neighbor 1.000 nsq
neigh_modify once yes

# Configure pairwise interactions for long range Coulombics only
pair_style coul/cut 1.000000e+01
pair_coeff * *

# Placing atoms
create_atoms 1 single -1.686138e-08 1.066992e-08 2.058863e-08 units box
Created 1 atoms
  using box units in orthogonal box = (-0.001 -0.001 -0.001) to (0.001 0.001 0.001)
  create_atoms CPU = 0.000 seconds
create_atoms 1 single -8.692169e-10 3.329415e-09 2.669335e-10 units box
Created 1 atoms
  using box units in orthogonal box = (-0.001 -0.001 -0.001) to (0.001 0.001 0.001)
  create_atoms CPU = 0.001 seconds
create_atoms 1 single 3.073861e-09 -7.348365e-10 -2.405243e-09 units box
Created 1 atoms
  using box units in orthogonal box = (-0.001 -0.001 -0.001) to (0.001 0.001 0.001)
  create_atoms CPU = 0.000 seconds
create_atoms 1 single 3.375456e-09 1.047757e-08 1.038475e-08 units box
Created 1 atoms
  using box units in orthogonal box = (-0.001 -0.001 -0.001) to (0.001 0.001 0.001)
  create_atoms CPU = 0.000 seconds
# Atom definitions
mass 1 1.660000e-27
set type 1 charge 1.600000e-19
Setting atom values ...
  4 settings made for charge

timestep 1.000000e-09

# Configuring additional output to flush buffer during simulation
thermo 10000
thermo_style custom step cpu
thermo_modify flush yes
fix extra all print 10 "SIMULATION RUNNING----------------------"

# Group definitions:
# (1 group(s))
group grp_cydde type 1
4 atoms in group grp_cydde

# Time integration:
group nonRigidBody union all
4 atoms in group nonRigidBody
fix timeIntegrator nonRigidBody nve
#Dump output
dump qfqjcj all custom 1 positions.txt id x y z vx vy vz
#Run simulation
run 10000
Generated 0 of 0 mixed pair_coeff terms from geometric mixing rule
Neighbor list info ...
  update: every = 1 steps, delay = 0 steps, check = yes
  max neighbors/atom: 2000, page size: 100000
  master list distance cutoff = 11
  ghost atom cutoff = 11
  1 neighbor lists, perpetual/occasional/extra = 1 0 0
  (1) pair coul/cut, perpetual
      attributes: half, newton on
      pair build: half/nsq/newton
      stencil: none
      bin: none
WARNING: Proc sub-domain size < neighbor skin, could lead to lost atoms (src/domain.cpp:966)
SIMULATION RUNNING----------------------
Per MPI rank memory allocation (min/avg/max) = 30.36 | 30.36 | 30.36 Mbytes
   Step          CPU      
         0   0            
SIMULATION RUNNING----------------------
SIMULATION RUNNING----------------------
SIMULATION RUNNING----------------------
SIMULATION RUNNING----------------------
SIMULATION RUNNING----------------------
SIMULATION RUNNING----------------------
SIMULATION RUNNING----------------------
SIMULATION RUNNING----------------------
SIMULATION RUNNING----------------------
SIMULATION RUNNING----------------------
SIMULATION RUNNING----------------------
SIMULATION RUNNING----------------------
SIMULATION RUNNING----------------------
SIMULATION RUNNING----------------------
SIMULATION RUNNING----------------------
SIMULATION RUNNING----------------------
SIMULATION RUNNING----------------------
SIMULATION RUNNING----------------------
SIMULATION RUNNING----------------------
SIMULATION RUNNING----------------------
SIMULATION RUNNING----------------------
SIMULATION RUNNING----------------------
SIMULATION RUNNING----------------------
SIMULATION RUNNING----------------------
SIMULATION RUNNING----------------------
SIMULATION RUNNING----------------------
SIMULATION RUNNING----------------------
SIMULATION RUNNING----------------------
SIMULATION RUNNING----------------------
SIMULATION RUNNING----------------------
SIMULATION RUNNING----------------------
SIMULATION RUNNING----------------------
SIMULATION RUNNING----------------------
SIMULATION RUNNING----------------------
SIMULATION RUNNING----------------------
SIMULATION RUNNING----------------------
SIMULATION RUNNING----------------------
SIMULATION RUNNING----------------------
SIMULATION RUNNING----------------------
SIMULATION RUNNING----------------------
SIMULATION RUNNING----------------------
SIMULATION RUNNING----------------------
SIMULATION RUNNING----------------------
SIMULATION RUNNING----------------------
SIMULATION RUNNING----------------------
SIMULATION RUNNING----------------------
SIMULATION RUNNING----------------------
SIMULATION RUNNING----------------------
SIMULATION RUNNING----------------------
SIMULATION RUNNING----------------------
SIMULATION RUNNING----------------------
SIMULATION RUNNING----------------------
SIMULATION RUNNING----------------------
SIMULATION RUNNING----------------------
SIMULATION RUNNING----------------------
SIMULATION RUNNING----------------------
SIMULATION RUNNING----------------------
SIMULATION RUNNING----------------------
SIMULATION RUNNING----------------------
SIMULATION RUNNING----------------------
SIMULATION RUNNING----------------------
SIMULATION RUNNING----------------------
SIMULATION RUNNING----------------------
SIMULATION RUNNING----------------------
SIMULATION RUNNING----------------------
SIMULATION RUNNING----------------------
SIMULATION RUNNING----------------------
SIMULATION RUNNING----------------------
SIMULATION RUNNING----------------------
SIMULATION RUNNING----------------------
SIMULATION RUNNING----------------------
SIMULATION RUNNING----------------------
SIMULATION RUNNING----------------------
SIMULATION RUNNING----------------------
SIMULATION RUNNING----------------------
SIMULATION RUNNING----------------------
SIMULATION RUNNING----------------------
SIMULATION RUNNING----------------------
SIMULATION RUNNING----------------------
SIMULATION RUNNING----------------------
SIMULATION RUNNING----------------------
SIMULATION RUNNING----------------------
SIMULATION RUNNING----------------------
SIMULATION RUNNING----------------------
SIMULATION RUNNING----------------------
SIMULATION RUNNING----------------------
SIMULATION RUNNING----------------------
SIMULATION RUNNING----------------------
SIMULATION RUNNING----------------------
SIMULATION RUNNING----------------------
SIMULATION RUNNING----------------------
SIMULATION RUNNING----------------------
SIMULATION RUNNING----------------------
SIMULATION RUNNING----------------------
SIMULATION RUNNING----------------------
SIMULATION RUNNING----------------------
SIMULATION RUNNING----------------------
SIMULATION RUNNING----------------------
SIMULATION RUNNING----------------------
SIMULATION RUNNING----------------------
SIMULATION RUNNING----------------------
SIMULATION RUNNING----------------------
SIMULATION RUNNING----------------------
SIMULATION RUNNING----------------------
SIMULATION RUNNING----------------------
SIMULATION RUNNING----------------------
SIMULATION RUNNING----------------------
SIMULATION RUNNING----------------------
SIMULATION RUNNING----------------------
SIMULATION RUNNING----------------------
SIMULATION RUNNING----------------------
SIMULATION RUNNING----------------------
SIMULATION RUNNING----------------------
SIMULATION RUNNING----------------------
SIMULATION RUNNING----------------------
SIMULATION RUNNING----------------------
SIMULATION RUNNING----------------------
SIMULATION RUNNING----------------------
SIMULATION RUNNING----------------------
SIMULATION RUNNING----------------------
SIMULATION RUNNING----------------------
SIMULATION RUNNING----------------------
SIMULATION RUNNING----------------------
SIMULATION RUNNING----------------------
SIMULATION RUNNING----------------------
SIMULATION RUNNING----------------------
SIMULATION RUNNING----------------------
SIMULATION RUNNING----------------------
SIMULATION RUNNING----------------------
SIMULATION RUNNING----------------------
SIMULATION RUNNING----------------------
SIMULATION RUNNING----------------------
SIMULATION RUNNING----------------------
SIMULATION RUNNING----------------------
SIMULATION RUNNING----------------------
SIMULATION RUNNING----------------------
SIMULATION RUNNING----------------------
SIMULATION RUNNING----------------------
SIMULATION RUNNING----------------------
SIMULATION RUNNING----------------------
SIMULATION RUNNING----------------------
SIMULATION RUNNING----------------------
SIMULATION RUNNING----------------------
SIMULATION RUNNING----------------------
SIMULATION RUNNING----------------------
SIMULATION RUNNING----------------------
SIMULATION RUNNING----------------------
SIMULATION RUNNING----------------------
SIMULATION RUNNING----------------------
SIMULATION RUNNING----------------------
SIMULATION RUNNING----------------------
SIMULATION RUNNING----------------------
SIMULATION RUNNING----------------------
SIMULATION RUNNING----------------------
SIMULATION RUNNING----------------------
SIMULATION RUNNING----------------------
SIMULATION RUNNING----------------------
SIMULATION RUNNING----------------------
SIMULATION RUNNING----------------------
SIMULATION RUNNING----------------------
SIMULATION RUNNING----------------------
SIMULATION RUNNING----------------------
SIMULATION RUNNING----------------------
SIMULATION RUNNING----------------------
SIMULATION RUNNING----------------------
SIMULATION RUNNING----------------------
SIMULATION RUNNING----------------------
SIMULATION RUNNING----------------------
SIMULATION RUNNING----------------------
SIMULATION RUNNING----------------------
SIMULATION RUNNING----------------------
SIMULATION RUNNING----------------------
SIMULATION RUNNING----------------------
SIMULATION RUNNING----------------------
SIMULATION RUNNING----------------------
SIMULATION RUNNING----------------------
SIMULATION RUNNING----------------------
SIMULATION RUNNING----------------------
SIMULATION RUNNING----------------------
SIMULATION RUNNING----------------------
SIMULATION RUNNING----------------------
SIMULATION RUNNING----------------------
SIMULATION RUNNING----------------------
SIMULATION RUNNING----------------------
SIMULATION RUNNING----------------------
SIMULATION RUNNING----------------------
SIMULATION RUNNING----------------------
SIMULATION RUNNING----------------------
SIMULATION RUNNING----------------------
SIMULATION RUNNING----------------------
SIMULATION RUNNING----------------------
SIMULATION RUNNING----------------------
SIMULATION RUNNING----------------------
SIMULATION RUNNING----------------------
SIMULATION RUNNING----------------------
SIMULATION RUNNING----------------------
SIMULATION RUNNING----------------------
SIMULATION RUNNING----------------------
SIMULATION RUNNING----------------------
SIMULATION RUNNING----------------------
SIMULATION RUNNING----------------------
SIMULATION RUNNING----------------------
SIMULATION RUNNING----------------------
SIMULATION RUNNING----------------------
SIMULATION RUNNING----------------------
SIMULATION RUNNING----------------------
SIMULATION RUNNING----------------------
SIMULATION RUNNING----------------------
SIMULATION RUNNING----------------------
SIMULATION RUNNING----------------------
SIMULATION RUNNING----------------------
SIMULATION RUNNING----------------------
SIMULATION RUNNING----------------------
SIMULATION RUNNING----------------------
SIMULATION RUNNING----------------------
SIMULATION RUNNING----------------------
SIMULATION RUNNING----------------------
SIMULATION RUNNING----------------------
SIMULATION RUNNING----------------------
SIMULATION RUNNING----------------------
SIMULATION RUNNING----------------------
SIMULATION RUNNING----------------------
SIMULATION RUNNING----------------------
SIMULATION RUNNING----------------------
SIMULATION RUNNING----------------------
SIMULATION RUNNING----------------------
SIMULATION RUNNING----------------------
SIMULATION RUNNING----------------------
SIMULATION RUNNING----------------------
SIMULATION RUNNING----------------------
SIMULATION RUNNING----------------------
SIMULATION RUNNING----------------------
SIMULATION RUNNING----------------------
SIMULATION RUNNING----------------------
SIMULATION RUNNING----------------------
SIMULATION RUNNING----------------------
SIMULATION RUNNING----------------------
SIMULATION RUNNING----------------------
SIMULATION RUNNING----------------------
SIMULATION RUNNING----------------------
SIMULATION RUNNING----------------------
SIMULATION RUNNING----------------------
SIMULATION RUNNING----------------------
SIMULATION RUNNING----------------------
SIMULATION RUNNING----------------------
SIMULATION RUNNING----------------------
SIMULATION RUNNING----------------------
SIMULATION RUNNING----------------------
SIMULATION RUNNING----------------------
SIMULATION RUNNING----------------------
SIMULATION RUNNING----------------------
SIMULATION RUNNING----------------------
SIMULATION RUNNING----------------------
SIMULATION RUNNING----------------------
SIMULATION RUNNING----------------------
SIMULATION RUNNING----------------------
SIMULATION RUNNING----------------------
SIMULATION RUNNING----------------------
SIMULATION RUNNING----------------------
SIMULATION RUNNING----------------------
SIMULATION RUNNING----------------------
SIMULATION RUNNING----------------------
SIMULATION RUNNING----------------------
SIMULATION RUNNING----------------------
SIMULATION RUNNING----------------------
SIMULATION RUNNING----------------------
SIMULATION RUNNING----------------------
SIMULATION RUNNING----------------------
SIMULATION RUNNING----------------------
SIMULATION RUNNING----------------------
SIMULATION RUNNING----------------------
SIMULATION RUNNING----------------------
SIMULATION RUNNING----------------------
SIMULATION RUNNING----------------------
SIMULATION RUNNING----------------------
SIMULATION RUNNING----------------------
SIMULATION RUNNING----------------------
SIMULATION RUNNING----------------------
SIMULATION RUNNING----------------------
SIMULATION RUNNING----------------------
SIMULATION RUNNING----------------------
SIMULATION RUNNING----------------------
SIMULATION RUNNING----------------------
SIMULATION RUNNING----------------------
SIMULATION RUNNING----------------------
SIMULATION RUNNING----------------------
SIMULATION RUNNING----------------------
SIMULATION RUNNING----------------------
SIMULATION RUNNING----------------------
SIMULATION RUNNING----------------------
SIMULATION RUNNING----------------------
SIMULATION RUNNING----------------------
SIMULATION RUNNING----------------------
SIMULATION RUNNING----------------------
SIMULATION RUNNING----------------------
SIMULATION RUNNING----------------------
SIMULATION RUNNING----------------------
SIMULATION RUNNING----------------------
SIMULATION RUNNING----------------------
SIMULATION RUNNING----------------------
SIMULATION RUNNING----------------------
SIMULATION RUNNING----------------------
SIMULATION RUNNING----------------------
SIMULATION RUNNING----------------------
SIMULATION RUNNING----------------------
SIMULATION RUNNING----------------------
SIMULATION RUNNING----------------------
SIMULATION RUNNING----------------------
SIMULATION RUNNING----------------------
SIMULATION RUNNING----------------------
SIMULATION RUNNING----------------------
SIMULATION RUNNING----------------------
SIMULATION RUNNING----------------------
SIMULATION RUNNING----------------------
SIMULATION RUNNING----------------------
SIMULATION RUNNING----------------------
SIMULATION RUNNING----------------------
SIMULATION RUNNING----------------------
SIMULATION RUNNING----------------------
SIMULATION RUNNING----------------------
SIMULATION RUNNING----------------------
SIMULATION RUNNING----------------------
SIMULATION RUNNING----------------------
SIMULATION RUNNING----------------------
SIMULATION RUNNING----------------------
SIMULATION RUNNING----------------------
SIMULATION RUNNING----------------------
SIMULATION RUNNING----------------------
SIMULATION RUNNING----------------------
SIMULATION RUNNING----------------------
SIMULATION RUNNING----------------------
SIMULATION RUNNING----------------------
SIMULATION RUNNING----------------------
SIMULATION RUNNING----------------------
SIMULATION RUNNING----------------------
SIMULATION RUNNING----------------------
SIMULATION RUNNING----------------------
SIMULATION RUNNING----------------------
SIMULATION RUNNING----------------------
SIMULATION RUNNING----------------------
SIMULATION RUNNING----------------------
SIMULATION RUNNING----------------------
SIMULATION RUNNING----------------------
SIMULATION RUNNING----------------------
SIMULATION RUNNING----------------------
SIMULATION RUNNING----------------------
SIMULATION RUNNING----------------------
SIMULATION RUNNING----------------------
SIMULATION RUNNING----------------------
SIMULATION RUNNING----------------------
SIMULATION RUNNING----------------------
SIMULATION RUNNING----------------------
SIMULATION RUNNING----------------------
SIMULATION RUNNING----------------------
SIMULATION RUNNING----------------------
SIMULATION RUNNING----------------------
SIMULATION RUNNING----------------------
SIMULATION RUNNING----------------------
SIMULATION RUNNING----------------------
SIMULATION RUNNING----------------------
SIMULATION RUNNING----------------------
SIMULATION RUNNING----------------------
SIMULATION RUNNING----------------------
SIMULATION RUNNING----------------------
SIMULATION RUNNING----------------------
SIMULATION RUNNING----------------------
SIMULATION RUNNING----------------------
SIMULATION RUNNING----------------------
SIMULATION RUNNING----------------------
SIMULATION RUNNING----------------------
SIMULATION RUNNING----------------------
SIMULATION RUNNING----------------------
SIMULATION RUNNING----------------------
SIMULATION RUNNING----------------------
SIMULATION RUNNING----------------------
SIMULATION RUNNING----------------------
SIMULATION RUNNING----------------------
SIMULATION RUNNING----------------------
SIMULATION RUNNING----------------------
SIMULATION RUNNING----------------------
SIMULATION RUNNING----------------------
SIMULATION RUNNING----------------------
SIMULATION RUNNING----------------------
SIMULATION RUNNING----------------------
SIMULATION RUNNING----------------------
SIMULATION RUNNING----------------------
SIMULATION RUNNING----------------------
SIMULATION RUNNING----------------------
SIMULATION RUNNING----------------------
SIMULATION RUNNING----------------------
SIMULATION RUNNING----------------------
SIMULATION RUNNING----------------------
SIMULATION RUNNING----------------------
SIMULATION RUNNING----------------------
SIMULATION RUNNING----------------------
SIMULATION RUNNING----------------------
SIMULATION RUNNING----------------------
SIMULATION RUNNING----------------------
SIMULATION RUNNING----------------------
SIMULATION RUNNING----------------------
SIMULATION RUNNING----------------------
SIMULATION RUNNING----------------------
SIMULATION RUNNING----------------------
SIMULATION RUNNING----------------------
SIMULATION RUNNING----------------------
SIMULATION RUNNING----------------------
SIMULATION RUNNING----------------------
SIMULATION RUNNING----------------------
SIMULATION RUNNING----------------------
SIMULATION RUNNING----------------------
SIMULATION RUNNING----------------------
SIMULATION RUNNING----------------------
SIMULATION RUNNING----------------------
SIMULATION RUNNING----------------------
SIMULATION RUNNING----------------------
SIMULATION RUNNING----------------------
SIMULATION RUNNING----------------------
SIMULATION RUNNING----------------------
SIMULATION RUNNING----------------------
SIMULATION RUNNING----------------------
SIMULATION RUNNING----------------------
SIMULATION RUNNING----------------------
SIMULATION RUNNING----------------------
SIMULATION RUNNING----------------------
SIMULATION RUNNING----------------------
SIMULATION RUNNING----------------------
SIMULATION RUNNING----------------------
SIMULATION RUNNING----------------------
SIMULATION RUNNING----------------------
SIMULATION RUNNING----------------------
SIMULATION RUNNING----------------------
SIMULATION RUNNING----------------------
SIMULATION RUNNING----------------------
SIMULATION RUNNING----------------------
SIMULATION RUNNING----------------------
SIMULATION RUNNING----------------------
SIMULATION RUNNING----------------------
SIMULATION RUNNING----------------------
SIMULATION RUNNING----------------------
SIMULATION RUNNING----------------------
SIMULATION RUNNING----------------------
SIMULATION RUNNING----------------------
SIMULATION RUNNING----------------------
SIMULATION RUNNING----------------------
SIMULATION RUNNING----------------------
SIMULATION RUNNING----------------------
SIMULATION RUNNING----------------------
SIMULATION RUNNING----------------------
SIMULATION RUNNING----------------------
SIMULATION RUNNING----------------------
SIMULATION RUNNING----------------------
SIMULATION RUNNING----------------------
SIMULATION RUNNING----------------------
SIMULATION RUNNING----------------------
SIMULATION RUNNING----------------------
SIMULATION RUNNING----------------------
SIMULATION RUNNING----------------------
SIMULATION RUNNING----------------------
SIMULATION RUNNING----------------------
SIMULATION RUNNING----------------------
SIMULATION RUNNING----------------------
SIMULATION RUNNING----------------------
SIMULATION RUNNING----------------------
SIMULATION RUNNING----------------------
SIMULATION RUNNING----------------------
SIMULATION RUNNING----------------------
SIMULATION RUNNING----------------------
SIMULATION RUNNING----------------------
SIMULATION RUNNING----------------------
SIMULATION RUNNING----------------------
SIMULATION RUNNING----------------------
SIMULATION RUNNING----------------------
SIMULATION RUNNING----------------------
SIMULATION RUNNING----------------------
SIMULATION RUNNING----------------------
SIMULATION RUNNING----------------------
SIMULATION RUNNING----------------------
SIMULATION RUNNING----------------------
SIMULATION RUNNING----------------------
SIMULATION RUNNING----------------------
SIMULATION RUNNING----------------------
SIMULATION RUNNING----------------------
SIMULATION RUNNING----------------------
SIMULATION RUNNING----------------------
SIMULATION RUNNING----------------------
SIMULATION RUNNING----------------------
SIMULATION RUNNING----------------------
SIMULATION RUNNING----------------------
SIMULATION RUNNING----------------------
SIMULATION RUNNING----------------------
SIMULATION RUNNING----------------------
SIMULATION RUNNING----------------------
SIMULATION RUNNING----------------------
SIMULATION RUNNING----------------------
SIMULATION RUNNING----------------------
SIMULATION RUNNING----------------------
SIMULATION RUNNING----------------------
SIMULATION RUNNING----------------------
SIMULATION RUNNING----------------------
SIMULATION RUNNING----------------------
SIMULATION RUNNING----------------------
SIMULATION RUNNING----------------------
SIMULATION RUNNING----------------------
SIMULATION RUNNING----------------------
SIMULATION RUNNING----------------------
SIMULATION RUNNING----------------------
SIMULATION RUNNING----------------------
SIMULATION RUNNING----------------------
SIMULATION RUNNING----------------------
SIMULATION RUNNING----------------------
SIMULATION RUNNING----------------------
SIMULATION RUNNING----------------------
SIMULATION RUNNING----------------------
SIMULATION RUNNING----------------------
SIMULATION RUNNING----------------------
SIMULATION RUNNING----------------------
SIMULATION RUNNING----------------------
SIMULATION RUNNING----------------------
SIMULATION RUNNING----------------------
SIMULATION RUNNING----------------------
SIMULATION RUNNING----------------------
SIMULATION RUNNING----------------------
SIMULATION RUNNING----------------------
SIMULATION RUNNING----------------------
SIMULATION RUNNING----------------------
SIMULATION RUNNING----------------------
SIMULATION RUNNING----------------------
SIMULATION RUNNING----------------------
SIMULATION RUNNING----------------------
SIMULATION RUNNING----------------------
SIMULATION RUNNING----------------------
SIMULATION RUNNING----------------------
SIMULATION RUNNING----------------------
SIMULATION RUNNING----------------------
SIMULATION RUNNING----------------------
SIMULATION RUNNING----------------------
SIMULATION RUNNING----------------------
SIMULATION RUNNING----------------------
SIMULATION RUNNING----------------------
SIMULATION RUNNING----------------------
SIMULATION RUNNING----------------------
SIMULATION RUNNING----------------------
SIMULATION RUNNING----------------------
SIMULATION RUNNING----------------------
SIMULATION RUNNING----------------------
SIMULATION RUNNING----------------------
SIMULATION RUNNING----------------------
SIMULATION RUNNING----------------------
SIMULATION RUNNING----------------------
SIMULATION RUNNING----------------------
SIMULATION RUNNING----------------------
SIMULATION RUNNING----------------------
SIMULATION RUNNING----------------------
SIMULATION RUNNING----------------------
SIMULATION RUNNING----------------------
SIMULATION RUNNING----------------------
SIMULATION RUNNING----------------------
SIMULATION RUNNING----------------------
SIMULATION RUNNING----------------------
SIMULATION RUNNING----------------------
SIMULATION RUNNING----------------------
SIMULATION RUNNING----------------------
SIMULATION RUNNING----------------------
SIMULATION RUNNING----------------------
SIMULATION RUNNING----------------------
SIMULATION RUNNING----------------------
SIMULATION RUNNING----------------------
SIMULATION RUNNING----------------------
SIMULATION RUNNING----------------------
SIMULATION RUNNING----------------------
SIMULATION RUNNING----------------------
SIMULATION RUNNING----------------------
SIMULATION RUNNING----------------------
SIMULATION RUNNING----------------------
SIMULATION RUNNING----------------------
SIMULATION RUNNING----------------------
SIMULATION RUNNING----------------------
SIMULATION RUNNING----------------------
SIMULATION RUNNING----------------------
SIMULATION RUNNING----------------------
SIMULATION RUNNING----------------------
SIMULATION RUNNING----------------------
SIMULATION RUNNING----------------------
SIMULATION RUNNING----------------------
SIMULATION RUNNING----------------------
SIMULATION RUNNING----------------------
SIMULATION RUNNING----------------------
SIMULATION RUNNING----------------------
SIMULATION RUNNING----------------------
SIMULATION RUNNING----------------------
SIMULATION RUNNING----------------------
SIMULATION RUNNING----------------------
SIMULATION RUNNING----------------------
SIMULATION RUNNING----------------------
SIMULATION RUNNING----------------------
SIMULATION RUNNING----------------------
SIMULATION RUNNING----------------------
SIMULATION RUNNING----------------------
SIMULATION RUNNING----------------------
SIMULATION RUNNING----------------------
SIMULATION RUNNING----------------------
SIMULATION RUNNING----------------------
SIMULATION RUNNING----------------------
SIMULATION RUNNING----------------------
SIMULATION RUNNING----------------------
SIMULATION RUNNING----------------------
SIMULATION RUNNING----------------------
SIMULATION RUNNING----------------------
SIMULATION RUNNING----------------------
SIMULATION RUNNING----------------------
SIMULATION RUNNING----------------------
SIMULATION RUNNING----------------------
SIMULATION RUNNING----------------------
SIMULATION RUNNING----------------------
SIMULATION RUNNING----------------------
SIMULATION RUNNING----------------------
SIMULATION RUNNING----------------------
SIMULATION RUNNING----------------------
SIMULATION RUNNING----------------------
SIMULATION RUNNING----------------------
SIMULATION RUNNING----------------------
SIMULATION RUNNING----------------------
SIMULATION RUNNING----------------------
SIMULATION RUNNING----------------------
SIMULATION RUNNING----------------------
SIMULATION RUNNING----------------------
SIMULATION RUNNING----------------------
SIMULATION RUNNING----------------------
SIMULATION RUNNING----------------------
SIMULATION RUNNING----------------------
SIMULATION RUNNING----------------------
SIMULATION RUNNING----------------------
SIMULATION RUNNING----------------------
SIMULATION RUNNING----------------------
SIMULATION RUNNING----------------------
SIMULATION RUNNING----------------------
SIMULATION RUNNING----------------------
SIMULATION RUNNING----------------------
SIMULATION RUNNING----------------------
SIMULATION RUNNING----------------------
SIMULATION RUNNING----------------------
SIMULATION RUNNING----------------------
SIMULATION RUNNING----------------------
SIMULATION RUNNING----------------------
SIMULATION RUNNING----------------------
SIMULATION RUNNING----------------------
SIMULATION RUNNING----------------------
SIMULATION RUNNING----------------------
SIMULATION RUNNING----------------------
SIMULATION RUNNING----------------------
SIMULATION RUNNING----------------------
SIMULATION RUNNING----------------------
SIMULATION RUNNING----------------------
SIMULATION RUNNING----------------------
SIMULATION RUNNING----------------------
SIMULATION RUNNING----------------------
SIMULATION RUNNING----------------------
SIMULATION RUNNING----------------------
SIMULATION RUNNING----------------------
SIMULATION RUNNING----------------------
SIMULATION RUNNING----------------------
SIMULATION RUNNING----------------------
SIMULATION RUNNING----------------------
SIMULATION RUNNING----------------------
SIMULATION RUNNING----------------------
SIMULATION RUNNING----------------------
SIMULATION RUNNING----------------------
SIMULATION RUNNING----------------------
SIMULATION RUNNING----------------------
SIMULATION RUNNING----------------------
SIMULATION RUNNING----------------------
SIMULATION RUNNING----------------------
SIMULATION RUNNING----------------------
SIMULATION RUNNING----------------------
SIMULATION RUNNING----------------------
SIMULATION RUNNING----------------------
SIMULATION RUNNING----------------------
SIMULATION RUNNING----------------------
SIMULATION RUNNING----------------------
SIMULATION RUNNING----------------------
SIMULATION RUNNING----------------------
SIMULATION RUNNING----------------------
SIMULATION RUNNING----------------------
SIMULATION RUNNING----------------------
SIMULATION RUNNING----------------------
SIMULATION RUNNING----------------------
SIMULATION RUNNING----------------------
SIMULATION RUNNING----------------------
SIMULATION RUNNING----------------------
SIMULATION RUNNING----------------------
SIMULATION RUNNING----------------------
SIMULATION RUNNING----------------------
SIMULATION RUNNING----------------------
SIMULATION RUNNING----------------------
SIMULATION RUNNING----------------------
SIMULATION RUNNING----------------------
SIMULATION RUNNING----------------------
SIMULATION RUNNING----------------------
SIMULATION RUNNING----------------------
SIMULATION RUNNING----------------------
SIMULATION RUNNING----------------------
SIMULATION RUNNING----------------------
SIMULATION RUNNING----------------------
SIMULATION RUNNING----------------------
SIMULATION RUNNING----------------------
SIMULATION RUNNING----------------------
SIMULATION RUNNING----------------------
SIMULATION RUNNING----------------------
SIMULATION RUNNING----------------------
SIMULATION RUNNING----------------------
SIMULATION RUNNING----------------------
SIMULATION RUNNING----------------------
SIMULATION RUNNING----------------------
SIMULATION RUNNING----------------------
SIMULATION RUNNING----------------------
SIMULATION RUNNING----------------------
SIMULATION RUNNING----------------------
SIMULATION RUNNING----------------------
SIMULATION RUNNING----------------------
SIMULATION RUNNING----------------------
SIMULATION RUNNING----------------------
SIMULATION RUNNING----------------------
SIMULATION RUNNING----------------------
SIMULATION RUNNING----------------------
SIMULATION RUNNING----------------------
SIMULATION RUNNING----------------------
SIMULATION RUNNING----------------------
SIMULATION RUNNING----------------------
SIMULATION RUNNING----------------------
SIMULATION RUNNING----------------------
SIMULATION RUNNING----------------------
SIMULATION RUNNING----------------------
SIMULATION RUNNING----------------------
SIMULATION RUNNING----------------------
SIMULATION RUNNING----------------------
SIMULATION RUNNING----------------------
SIMULATION RUNNING----------------------
SIMULATION RUNNING----------------------
SIMULATION RUNNING----------------------
SIMULATION RUNNING----------------------
SIMULATION RUNNING----------------------
SIMULATION RUNNING----------------------
SIMULATION RUNNING----------------------
SIMULATION RUNNING----------------------
SIMULATION RUNNING----------------------
SIMULATION RUNNING----------------------
SIMULATION RUNNING----------------------
SIMULATION RUNNING----------------------
SIMULATION RUNNING----------------------
SIMULATION RUNNING----------------------
SIMULATION RUNNING----------------------
SIMULATION RUNNING----------------------
SIMULATION RUNNING----------------------
SIMULATION RUNNING----------------------
SIMULATION RUNNING----------------------
SIMULATION RUNNING----------------------
SIMULATION RUNNING----------------------
SIMULATION RUNNING----------------------
SIMULATION RUNNING----------------------
SIMULATION RUNNING----------------------
SIMULATION RUNNING----------------------
SIMULATION RUNNING----------------------
SIMULATION RUNNING----------------------
SIMULATION RUNNING----------------------
SIMULATION RUNNING----------------------
SIMULATION RUNNING----------------------
SIMULATION RUNNING----------------------
SIMULATION RUNNING----------------------
SIMULATION RUNNING----------------------
SIMULATION RUNNING----------------------
SIMULATION RUNNING----------------------
SIMULATION RUNNING----------------------
SIMULATION RUNNING----------------------
SIMULATION RUNNING----------------------
SIMULATION RUNNING----------------------
SIMULATION RUNNING----------------------
SIMULATION RUNNING----------------------
SIMULATION RUNNING----------------------
SIMULATION RUNNING----------------------
SIMULATION RUNNING----------------------
SIMULATION RUNNING----------------------
SIMULATION RUNNING----------------------
SIMULATION RUNNING----------------------
SIMULATION RUNNING----------------------
SIMULATION RUNNING----------------------
SIMULATION RUNNING----------------------
SIMULATION RUNNING----------------------
SIMULATION RUNNING----------------------
SIMULATION RUNNING----------------------
SIMULATION RUNNING----------------------
SIMULATION RUNNING----------------------
SIMULATION RUNNING----------------------
SIMULATION RUNNING----------------------
SIMULATION RUNNING----------------------
SIMULATION RUNNING----------------------
SIMULATION RUNNING----------------------
SIMULATION RUNNING----------------------
SIMULATION RUNNING----------------------
SIMULATION RUNNING----------------------
SIMULATION RUNNING----------------------
SIMULATION RUNNING----------------------
SIMULATION RUNNING----------------------
SIMULATION RUNNING----------------------
SIMULATION RUNNING----------------------
SIMULATION RUNNING----------------------
SIMULATION RUNNING----------------------
SIMULATION RUNNING----------------------
SIMULATION RUNNING----------------------
SIMULATION RUNNING----------------------
SIMULATION RUNNING----------------------
SIMULATION RUNNING----------------------
SIMULATION RUNNING----------------------
SIMULATION RUNNING----------------------
SIMULATION RUNNING----------------------
SIMULATION RUNNING----------------------
SIMULATION RUNNING----------------------
SIMULATION RUNNING----------------------
SIMULATION RUNNING----------------------
SIMULATION RUNNING----------------------
SIMULATION RUNNING----------------------
SIMULATION RUNNING----------------------
SIMULATION RUNNING----------------------
SIMULATION RUNNING----------------------
SIMULATION RUNNING----------------------
SIMULATION RUNNING----------------------
SIMULATION RUNNING----------------------
SIMULATION RUNNING----------------------
SIMULATION RUNNING----------------------
SIMULATION RUNNING----------------------
SIMULATION RUNNING----------------------
SIMULATION RUNNING----------------------
SIMULATION RUNNING----------------------
SIMULATION RUNNING----------------------
SIMULATION RUNNING----------------------
SIMULATION RUNNING----------------------
SIMULATION RUNNING----------------------
SIMULATION RUNNING----------------------
SIMULATION RUNNING----------------------
SIMULATION RUNNING----------------------
SIMULATION RUNNING----------------------
SIMULATION RUNNING----------------------
SIMULATION RUNNING----------------------
SIMULATION RUNNING----------------------
SIMULATION RUNNING----------------------
SIMULATION RUNNING----------------------
SIMULATION RUNNING----------------------
SIMULATION RUNNING----------------------
SIMULATION RUNNING----------------------
SIMULATION RUNNING----------------------
SIMULATION RUNNING----------------------
SIMULATION RUNNING----------------------
SIMULATION RUNNING----------------------
SIMULATION RUNNING----------------------
SIMULATION RUNNING----------------------
SIMULATION RUNNING----------------------
SIMULATION RUNNING----------------------
SIMULATION RUNNING----------------------
SIMULATION RUNNING----------------------
SIMULATION RUNNING----------------------
SIMULATION RUNNING----------------------
SIMULATION RUNNING----------------------
SIMULATION RUNNING----------------------
SIMULATION RUNNING----------------------
SIMULATION RUNNING----------------------
SIMULATION RUNNING----------------------
SIMULATION RUNNING----------------------
SIMULATION RUNNING----------------------
SIMULATION RUNNING----------------------
SIMULATION RUNNING----------------------
SIMULATION RUNNING----------------------
SIMULATION RUNNING----------------------
SIMULATION RUNNING----------------------
SIMULATION RUNNING----------------------
SIMULATION RUNNING----------------------
SIMULATION RUNNING----------------------
SIMULATION RUNNING----------------------
SIMULATION RUNNING----------------------
SIMULATION RUNNING----------------------
SIMULATION RUNNING----------------------
SIMULATION RUNNING----------------------
SIMULATION RUNNING----------------------
SIMULATION RUNNING----------------------
SIMULATION RUNNING----------------------
SIMULATION RUNNING----------------------
SIMULATION RUNNING----------------------
SIMULATION RUNNING----------------------
SIMULATION RUNNING----------------------
SIMULATION RUNNING----------------------
SIMULATION RUNNING----------------------
SIMULATION RUNNING----------------------
SIMULATION RUNNING----------------------
SIMULATION RUNNING----------------------
SIMULATION RUNNING----------------------
SIMULATION RUNNING----------------------
SIMULATION RUNNING----------------------
SIMULATION RUNNING----------------------
SIMULATION RUNNING----------------------
SIMULATION RUNNING----------------------
SIMULATION RUNNING----------------------
SIMULATION RUNNING----------------------
SIMULATION RUNNING----------------------
SIMULATION RUNNING----------------------
SIMULATION RUNNING----------------------
SIMULATION RUNNING----------------------
SIMULATION RUNNING----------------------
SIMULATION RUNNING----------------------
SIMULATION RUNNING----------------------
SIMULATION RUNNING----------------------
SIMULATION RUNNING----------------------
SIMULATION RUNNING----------------------
SIMULATION RUNNING----------------------
SIMULATION RUNNING----------------------
SIMULATION RUNNING----------------------
SIMULATION RUNNING----------------------
SIMULATION RUNNING----------------------
SIMULATION RUNNING----------------------
SIMULATION RUNNING----------------------
SIMULATION RUNNING----------------------
SIMULATION RUNNING----------------------
SIMULATION RUNNING----------------------
SIMULATION RUNNING----------------------
SIMULATION RUNNING----------------------
SIMULATION RUNNING----------------------
SIMULATION RUNNING----------------------
SIMULATION RUNNING----------------------
SIMULATION RUNNING----------------------
SIMULATION RUNNING----------------------
SIMULATION RUNNING----------------------
SIMULATION RUNNING----------------------
SIMULATION RUNNING----------------------
SIMULATION RUNNING----------------------
SIMULATION RUNNING----------------------
SIMULATION RUNNING----------------------
SIMULATION RUNNING----------------------
SIMULATION RUNNING----------------------
SIMULATION RUNNING----------------------
SIMULATION RUNNING----------------------
SIMULATION RUNNING----------------------
SIMULATION RUNNING----------------------
SIMULATION RUNNING----------------------
SIMULATION RUNNING----------------------
SIMULATION RUNNING----------------------
SIMULATION RUNNING----------------------
SIMULATION RUNNING----------------------
SIMULATION RUNNING----------------------
SIMULATION RUNNING----------------------
SIMULATION RUNNING----------------------
SIMULATION RUNNING----------------------
SIMULATION RUNNING----------------------
SIMULATION RUNNING----------------------
SIMULATION RUNNING----------------------
SIMULATION RUNNING----------------------
SIMULATION RUNNING----------------------
SIMULATION RUNNING----------------------
SIMULATION RUNNING----------------------
SIMULATION RUNNING----------------------
SIMULATION RUNNING----------------------
SIMULATION RUNNING----------------------
SIMULATION RUNNING----------------------
SIMULATION RUNNING----------------------
SIMULATION RUNNING----------------------
SIMULATION RUNNING----------------------
SIMULATION RUNNING----------------------
SIMULATION RUNNING----------------------
SIMULATION RUNNING----------------------
SIMULATION RUNNING----------------------
SIMULATION RUNNING----------------------
SIMULATION RUNNING----------------------
SIMULATION RUNNING----------------------
SIMULATION RUNNING----------------------
SIMULATION RUNNING----------------------
SIMULATION RUNNING----------------------
SIMULATION RUNNING----------------------
SIMULATION RUNNING----------------------
SIMULATION RUNNING----------------------
SIMULATION RUNNING----------------------
SIMULATION RUNNING----------------------
SIMULATION RUNNING----------------------
SIMULATION RUNNING----------------------
SIMULATION RUNNING----------------------
SIMULATION RUNNING----------------------
SIMULATION RUNNING----------------------
SIMULATION RUNNING----------------------
SIMULATION RUNNING----------------------
SIMULATION RUNNING----------------------
SIMULATION RUNNING----------------------
SIMULATION RUNNING----------------------
SIMULATION RUNNING----------------------
SIMULATION RUNNING----------------------
SIMULATION RUNNING----------------------
SIMULATION RUNNING----------------------
SIMULATION RUNNING----------------------
SIMULATION RUNNING----------------------
SIMULATION RUNNING----------------------
SIMULATION RUNNING----------------------
SIMULATION RUNNING----------------------
SIMULATION RUNNING----------------------
SIMULATION RUNNING----------------------
SIMULATION RUNNING----------------------
SIMULATION RUNNING----------------------
     10000   1.449959     
Loop time of 1.45007 on 32 procs for 10000 steps with 4 atoms

0.0% CPU use with 1 MPI tasks x 32 OpenMP threads

MPI task timing breakdown:
Section |  min time  |  avg time  |  max time  |%varavg| %total
---------------------------------------------------------------
Pair    | 0.00128    | 0.00128    | 0.00128    |   0.0 |  0.09
Neigh   | 0          | 0          | 0          |   0.0 |  0.00
Comm    | 0.001052   | 0.001052   | 0.001052   |   0.0 |  0.07
Output  | 0.13081    | 0.13081    | 0.13081    |   0.0 |  9.02
Modify  | 1.3146     | 1.3146     | 1.3146     |   0.0 | 90.66
Other   |            | 0.002366   |            |       |  0.16

Nlocal:              4 ave           4 max           4 min
Histogram: 1 0 0 0 0 0 0 0 0 0
Nghost:              0 ave           0 max           0 min
Histogram: 1 0 0 0 0 0 0 0 0 0
Neighs:              6 ave           6 max           6 min
Histogram: 1 0 0 0 0 0 0 0 0 0

Total # of neighbors = 6
Ave neighs/atom = 1.5
Neighbor list builds = 0
Dangerous builds = 0
Total wall time: 0:00:01
